VARIABLES = "X", "Y"
ZONE NODES=12, ELEMENTS=14, DATAPACKING=BLOCK,
ZONETYPE=FETRIANGLE
-0.28571428925817971001
-1.00000000000000000000
0.00000000000000000000
-1.00000000000000000000
0.40000000000000002220
-0.40000000000000002220
0.28571428925817971001
1.00000000000000000000
-1.00000000000000000000
1.00000000000000000000
0.00000000000000000000
1.00000000000000000000

-0.28571428925817971001
-1.00000000000000000000
-1.00000000000000000000
0.00000000000000000000
-0.40000000000000002220
0.40000000000000002220
0.28571428925817971001
-1.00000000000000000000
1.00000000000000000000
0.00000000000000000000
1.00000000000000000000
1.00000000000000000000

1
2
3
1
4
2
1
3
5
1
6
4
7
1
5
7
6
1
5
3
8
6
9
4
5
10
7
5
8
10
7
11
6
6
11
9
7
10
12
7
12
11
